<?xml version="1.0"?>
<VTKFile type="UnstructuredGrid" version="0.1" byte_order="LittleEndian">
<UnstructuredGrid>
<Piece NumberOfPoints="1063" NumberOfCells="4392">
<Points>
<DataArray type="Float64" Name="Array" NumberOfComponents="3" format="ascii">
6.1230317691119e-17 -1.4996607218221e-32 1
6.1230317691119e-17 -1.4996607218221e-32 -1
0.15643446504023 -3.8314127969014e-17 -0.98768834059514
0.30901699437495 -7.5684834950131e-17 -0.95105651629515
0.45399049973955 -1.1119193011121e-16 -0.89100652418837
0.58778525229247 -1.4396111092809e-16 -0.80901699437495
0.70710678118655 -1.7318549141439e-16 -0.70710678118655
0.80901699437495 -1.9814547033237e-16 -0.58778525229247
0.89100652418837 -2.1822645016365e-16 -0.45399049973955
0.95105651629515 -2.3293397053984e-16 -0.30901699437495
0.98768834059514 -2.4190588349782e-16 -0.15643446504023
1 -2.4492127076448e-16 -2.4492127076448e-16
0.98768834059514 -2.4190588349782e-16 0.15643446504023
0.95105651629515 -2.3293397053984e-16 0.30901699437495
0.89100652418837 -2.1822645016365e-16 0.45399049973955
0.80901699437495 -1.9814547033237e-16 0.58778525229247
0.70710678118655 -1.7318549141439e-16 0.70710678118655
0.58778525229247 -1.4396111092809e-16 0.80901699437495
0.45399049973955 -1.1119193011121e-16 0.89100652418837
0.30901699437495 -7.5684834950131e-17 0.95105651629515
0.15643446504023 -3.8314127969014e-17 0.98768834059514
0.12066348529913 -0.58873210486264 0.79927143826079
-0.15459181367581 -0.49065467490786 0.85753096803292
0.065312251752737 -0.32156106402599 0.94463368131433
-0.55646657552036 0.42110214442211 -0.71625270281636
-0.37422211391444 0.20785592475185 -0.90374428020484
-0.21366901647006 0.489646691498 -0.84533524054411
-0.15003960695664 -0.68039162996599 0.71732513284878
0.077323731895277 -0.8080685521056 0.58399165711827
-0.34086715617265 -0.18423197752994 -0.92188294283937
-0.14909471739249 0.022348033544118 -0.98857034683545
-0.61299027815207 0.015721715673717 -0.78993401404631
-0.12861902581298 -0.14391931846594 0.98119538114038
-0.0091387622991148 0.99699514414668 -0.076923114676741
0.19855084980082 0.96892923844637 -0.14749132492152
0.13988704098692 0.98606526981599 0.090038321989214
0.85134044178001 0.376146399558 -0.36569569082691
0.94672351899542 0.31691661669638 -0.057257633924637
0.57727506272375 -0.3584429623285 0.73367032427001
0.3718801435314 -0.31324865820737 0.87383089724405
-0.37357672888862 -0.57342396521825 0.72912645250755
-0.91900433380718 -0.3490817069698 -0.18322935436952
-0.82836341416045 -0.29794843214938 -0.47438463914862
-0.93464671030362 -0.11070748839072 -0.3379043931837
-0.002793050266721 -0.87186456677704 -0.48973908979056
-0.27752660406811 -0.7956664104002 -0.53841800433797
-0.26780758654845 -0.92594166272082 -0.26629144527171
-0.76551869938634 0.24074688348569 -0.59667584078943
-0.78890449286259 0.42343983926428 -0.4453407725159
0.41999244773591 0.90751793849594 -0.0041874995982088
-0.82300957281392 -0.017563266566842 -0.56775591121903
-0.34488657404224 0.84406118372111 0.41062631330776
-0.03673096021166 0.85715062372877 0.51375445964322
-0.2907732609268 0.63764526095808 0.71334383848723
0.00058928780068593 0.64271606827868 0.76610424115539
-0.089026388628393 0.77179299757018 -0.62961088858868
0.12897575880653 0.54247793613607 -0.83011019897712
-0.38938724267489 0.67962754085708 -0.62167835811664
0.45548382861291 0.51128169357713 -0.72878358357267
0.62348435539085 0.63467497241762 -0.4565686563591
0.33686266840543 0.72057663300026 -0.60604691122781
0.29359902705985 -0.85986535780795 0.4176495872754
-0.022065396507942 -0.93900627121377 0.3431914056298
-0.11640187426914 0.26985049044974 -0.95584063340636
0.56347150438585 0.80380863959078 -0.19076565378591
0.79273112802044 0.58049681591691 -0.18601291723363
0.21943639086184 -0.97488500501081 0.038038104193046
-0.15892619220409 -0.98648116197166 0.039967267939523
-0.50991936612613 -0.86008238897261 0.015508843563944
-0.27603362504427 -0.9224467043735 0.26999539891522
-0.34517844816456 0.85909754031914 -0.37789317953664
-0.25767904902902 0.95939240633575 -0.11475067911262
-0.575405957 0.8129553226597 -0.089507698038711
0.97779865743867 0.13654585797415 0.15894972218044
0.8483934784423 0.17884425709596 -0.49824014033432
0.6858420726139 0.30310150331665 -0.66162688134617
-0.70804739021511 -0.59864828693178 0.3745518946197
-0.60085979084052 -0.44288684785881 0.66544628013445
-0.50210334237631 -0.65898957985932 0.56002229170933
0.84540696441631 0.52581273120653 0.093851138605368
0.71962467485883 0.55811626499427 0.41309389015474
0.68503984963914 0.727330174785 0.041366910128882
0.35920955274053 -0.52779340481731 -0.76967695759409
0.32831821115327 -0.29258460714631 -0.8981099041243
0.13759835798754 -0.46885404884759 -0.87249216200397
-0.52840262268319 -0.78915932523505 0.31307862867989
-0.70743607337662 -0.69359360615305 0.13587535313319
-0.87172490592746 -0.48207311089504 0.087756504817227
-0.77274409538091 -0.62092312297008 -0.1316094161336
0.31562627750305 -0.89326693824505 -0.32008472314041
0.01452524201372 -0.97879039074752 -0.20434869298522
-0.10504584058293 0.97460781889905 0.19774976793174
0.094826357150181 0.94012998495511 0.32735847839627
0.32439467079291 0.55634582797321 0.76501465166228
0.33698500773767 0.28055100170975 0.89873925028325
0.10578240694866 0.42731590600144 0.8978926432811
-0.56178547891787 -0.72918635034249 -0.39074843845014
-0.3838281117804 -0.60463971126921 -0.69791604091279
0.579542191638 0.37780105198799 0.72207839825617
-0.769848119399 -0.50709658107952 -0.38753958573968
0.76367640346052 0.26329054183031 0.58947132362847
-0.59252091631737 0.6747204998 -0.44008091401021
-0.27579478026846 -0.80855641838266 0.51978241358175
-0.10428016297675 -0.65778598541242 -0.74595123500437
0.0094637798054459 -0.20388024829968 -0.97895009128405
-0.36417729639337 0.92284339598013 0.12543908197796
-0.70730674410108 -0.22292790887953 -0.67083553661961
0.41868394923375 0.24864619380377 -0.87342934514529
0.16057068212472 0.20342195807706 -0.965834645793
-0.9339766745315 0.1588458986215 -0.32008678810942
0.4712660980542 0.70564910289367 0.52911965415219
0.32883543755678 0.89417877323064 0.30382820229627
0.53867081133978 0.79743056997718 0.27191587499887
0.22694300825158 -0.6995610295959 -0.67757747665964
0.90246688292909 0.29408632480673 0.31474872323477
0.64406770260343 -0.3446122763837 -0.6829488805385
0.20329884738481 0.80729858471199 0.55402037306766
-0.97933025136369 0.20191979235058 0.011859857546834
-0.90764276757747 0.3843071930805 -0.16879747572429
-0.85002507750387 0.49173758970133 0.18881607582321
0.81429276182382 -0.30441684576503 0.49422432361814
-0.31404405969545 0.19522132826612 0.92912053123371
-0.47457707433742 0.29754214438127 0.82839922309858
-0.15111710709566 0.34475559135855 0.92644870455415
0.74195533762554 -0.59573003899487 0.30758413094331
0.89541002070926 -0.37936174475745 0.23307844479493
-0.68141749143677 0.28870406752453 0.67254751784451
-0.75328304924517 0.50389215987644 0.42267876565419
-0.53564771819411 0.59223742136826 0.60194381691692
0.32029433817934 0.88655642688508 -0.33381018390548
0.082921889704792 0.18352236835703 0.9795118684939
-0.71374813977437 -0.20261564037403 0.67045543867169
-0.63912660792101 0.0058197005056195 0.76907952133274
-0.47836953889462 -0.28184916537705 0.83169924385802
-0.78346659094563 0.58777901090844 -0.20173233555267
0.71322226856687 -0.53811384772814 -0.44916309120802
0.87576225595782 -0.2652382536739 -0.40334741827324
0.67086572284816 -0.50739017069604 0.54082751093899
0.46395828321051 -0.67992787355366 -0.56783870791375
0.95936250916631 -0.28213996728991 -0.004540359432844
-0.87096904135826 -0.29811555905989 0.39056374952354
-0.84604665647595 0.0051071099770448 0.53308439528235
-0.15523854430296 0.095204354877423 0.9832787626991
-0.39454788789103 -0.024314441336151 0.91855363049919
0.51764616009048 -0.72181342116706 0.45937766376554
-0.22093010270963 -0.45796841749712 -0.86107770746426
-0.99848943396979 -0.038082452982777 -0.039605265123624
-0.97708469923918 -0.020847564333502 0.21182745236167
-0.96784782039115 -0.23260607823945 0.095734053137703
-0.89990160755832 0.23966758849209 0.36433026739531
0.36399126047731 -0.62097677778648 0.69418888189459
0.65057663985526 -0.71224945621991 -0.26353509783153
0.8397371233336 -0.48856482725838 -0.23695141540281
0.81075557046482 -0.5851168725608 0.017710178003961
-0.63097599738409 -0.45212834027542 -0.63043576567716
0.56447170008754 -0.81600254307712 0.12454537121854
-0.009236666287985 0.95542995551391 -0.29507335376575
-0.63142225379384 0.73284916817511 0.25345223242053
-0.73424898264531 0.67777924938636 0.038648681550477
-0.5048251521734 -0.33217765104116 -0.79674937959303
0.44336995685491 -0.88863950548443 -0.11723016101189
0.13271661692493 0.83645823110039 -0.53171790191455
0.71665467578502 -0.18130593312135 0.67344950389058
0.033117744972456 -0.16305328672178 0.98606127631966
0.19109464165465 -0.16415654650498 0.9677476252466
0.041674954835159 0.09223483014858 0.99486478189096
0.19810081338294 0.092759182419102 0.97578266115665
-0.064613990662117 -0.072300357125845 0.99528774260019
-0.031936085743206 -0.23481881090478 0.97151439128439
-0.077945793592091 0.047802425793568 0.99581091646434
-0.14296715686974 -0.024535684704194 0.9894232624275
-0.036453588008953 0.14050137125856 0.98940916743061
0.0047569896704787 -0.10248085385694 -0.99472360263644
0.16193634366812 -0.10366598122214 -0.98134091167986
0.23668406574996 0.10252981181147 -0.96616162763275
0.080979998071116 0.10259101820286 -0.99142186928497
-0.074761288677286 0.011206083061704 -0.99713849259655
-0.13381295748152 0.14727100043975 -0.98000272695515
-0.058854306028717 0.13643992802219 -0.98889853711247
-0.070492025167815 -0.09164568878828 -0.99329348236776
0.022312107424096 0.2390760861584 -0.97074445395762
0.32226406217984 -0.14794334788413 -0.93501798915539
0.46754984219169 -0.14932580473436 -0.87126284731243
0.50929101281728 0.12581932132991 -0.85134726325022
0.36753874882554 0.12558333443637 -0.92149014873931
[...]
<PointData>
<DataArray type="Float64" Name="PC1" NumberOfComponents="1" format="ascii">
-0.6562883725 -0.6553043428 -0.4024501293 -0.09237074477 0.2494328918 0.5838246409 0.8660532376 1.077217918 1.209992027 1.23952932 1.147329607 0.9615334513 0.7170791231 0.4220047476 0.08833298297 -0.2531784917 -0.5489291165 -0.7645181125 -0.8977034325 -0.9252228704 -0.8213855272 -0.5720283927 -0.1984384835 -0.6438521938 -0.7194920599 -0.9188457206 -0.7193236143 -0.1299419311 -0.4301581849 -0.8643902623 -0.8265003572 -0.7050235391 -0.3994285008 -0.3292884539 -0.0733843796 -0.2453050609 1.299142683 1.15046858 -0.729193051 -0.8656708905 0.3138494337 0.7654849026 0.1020522435 0.4129975245 -0.5024024989 -0.4683959881 -0.2551127475 -0.4108128953 -0.2647793705 0.1851267182 -0.179645661 -0.3165273227 -0.512035507 -0.321664599 -0.6398909022 -0.4527887633 -0.227949868 -0.6636725535 0.4875357482 0.874564643 0.2619004738 -0.5468193623 -0.2693558983 -0.7340665063 0.5925679926 1.072303351 -0.4134741412 -0.1684261683 0.3595587972 0.1009607755 -0.5264813155 -0.4355269506 -0.2842729035 0.7781869053 1.234601135 0.9786732577 1.030705886 0.8021812014 0.6149591278 0.7831605098 0.1211892519 0.5925802012 -0.2128527132 -0.1822838693 -0.5489012643 0.6011319669 0.8314406009 1.075985256 0.6198820901 -0.3730888739 -0.3901428848 -0.4297184922 -0.4018062503 -0.6971792549 -0.8317925524 -0.7493729092 -0.0376136105 -0.5964202118 -0.5510045915 0.2186500202 -0.2060046428 -0.5005331722 0.1442291505 -0.6687512541 -0.6915858011 -0.3644842474 -0.396077451 0.3017553744 -0.3228393853 0.2789214163 -0.3232737683 -0.218454388 0.08975086128 -0.4435063103 0.4985466933 0.4828031188 -0.5051508657 0.7729593598 0.2962887404 0.5079928599 -0.2465659668 -0.165031273 0.1299821972 -0.4834387663 -0.2166030446 0.1875288561 0.5792000184 0.4945552498 0.06680625458 0.1908286932 -0.7594318699 0.9729168266 0.7136861029 0.4707655803 -0.08185666312 0.382299969 0.9500238998 -0.5180329913 -0.1046454584 0.6957275932 1.296858212 1.154608911 -0.4297167858 0.1266785106 -0.5789002416 -0.7757952808 0.9381024766 1.199122895 1.166237972 0.9861933352 -0.7297202919 0.07931627148 0.5293727296 0.1704171353 -0.3591241605 -0.3307908685 -0.305041761 0.01340236537 0.035651387 -0.68609571 -0.3164805037 -0.1296589135 -0.5376913225 -0.6626551673 -0.8267799225 -0.7187899058 -0.8509799896 -0.5352655436 -0.5371639074 -0.5518100737 -0.4198592554 -0.6227861613 -0.676367102 -0.4311455211 -0.2034471367 -0.5060911049 -0.7553067903 -0.7878313031 -0.7034186811 -0.7712743834 -0.558695853 -0.1359163448 0.1910462994 0.4670743409 0.1079226271 -0.4574828468 -0.01441820987 1.070385834 0.8247492123 0.8210807459 0.5748229786 0.6749413839 0.1629858232 1.179610932 1.277140956 1.062671771 1.122416404 1.152190479 0.7653790848 1.268369994 1.09744932 1.033999868 0.8694058364 1.279290941 1.303608466 1.286028355 0.8843468709 0.6069253373 0.8874801047 0.6081532858 1.002834452 0.1257287568 0.474081257 0.08071789224 -0.2420576888 0.652338627 0.3277662109 -0.03112662511 0.4534512017 -0.2292827781 -0.5203378293 -0.6594366081 -0.4132414226 0.1486563794 -0.3982556419 -0.8683089373 -0.9086229519 -0.8438552127 -0.8921591651 -0.8257287829 -0.7657699893 -0.6590744646 -0.6727271605 -0.7502034882 -0.3919975651 -0.7994290089 -0.8393396094 -0.6045174044 -0.4338801128 -0.4140698595 -0.1580058638 -0.3749447539 -0.7535437958 -0.2960088442 -0.5079508865 -0.6774139018 -0.6163566112 -0.827587273 -0.2922798404 0.08405421702 0.0515063962 0.1235186868 0.02840437399 0.4088303179 -0.8038723158 -0.848043443 -0.8367154854 -0.8662101203 -0.7398118186 -0.7209013052 -0.7290757734 -0.5850119547 -0.5954270444 -0.3414652657 -0.5274586044 -0.409908993 -0.6157174943 -0.6132371499 -0.8703420531 -0.735562565 -0.9033080915 -0.8829204384 -0.9084325694 -0.835844509 -0.359754154 -0.5256123651 -0.5896190613 -0.6074511256 -0.5153707194 0.01757425749 -0.1767826061 0.2483264061 -0.344938765 -0.4397294399 -0.5138578225 -0.6463967543 -0.08143049436 -0.8435004437 -0.7062789743 -0.8097861557 -0.7767610593 -0.8306321948 -0.7755683807 -0.4848537903 -0.2984084702 -0.2933972864 -0.5732759758 -0.5650209656 0.3112286415 -0.1433127101 -0.1662478975 -0.2868930944 -0.1575180985 -0.2185904652 -0.1957193607 -0.3147897728 -0.3908686104 -0.3679063484 -0.4029238225 -0.4223338713 -0.4055597197 -0.05385961699 0.06226496739 0.2299345174 0.05837086398 -0.0908309664 -0.01254182385 -0.2160276942 -0.4206257101 -0.3282100006 -0.3220759574 1.2270503 1.153564977 1.116400059 1.026769049 1.209458948 0.971126533 0.9573425386 0.995622308 0.8626140073 0.6661139428 -0.7693769917 -0.6329740553 -0.6902521997 -0.535866361 0.5750771382 0.7276953738 0.4838491885 0.6547306152 0.3854975918 0.6107114752 0.2615413675 0.4481658113 0.1719736471 0.496787302 0.9012613087 0.6966056343 0.964391722 0.7104588295 0.8783845781 1.151311188 0.9990687944 0.4363937951 1.090699771 0.114487118 -0.03302235851 -0.1555376796 -0.1344706906 -0.0706942084 -0.3752539227 0.3620906559 0.06334441951 0.6297478424 -0.4164819227 -0.3507406289 -0.5091668135 -0.5791877212 -0.6054197436 -0.4485729098 -0.3369250991 -0.4347603563 -0.4600234209 -0.5161114339 -0.4087948246 -0.590972719 -0.296791959 -0.1475931993 -0.3498153356 -0.5407720103 -0.6658621608 0.08439331348 0.0370484975 -0.1752875301 -0.3021844568 0.1986975626 -0.004765142179 -0.07679387742 -0.3101774627 -0.1683596869 0.01363493127 0.303002447 0.1037279993 0.3969947657 0.4048818032 0.6167629874 0.4099466171 0.1613838554 0.3373229442 -0.06878272002 -0.3033598111 -0.4711041429 -0.4426521704 -0.4109703141 -0.4633992878 -0.1523738079 -0.1377202697 -0.3354793653 -0.4183609063 -0.2123138175 -0.1644358609 0.07129364178 -0.5069062798 -0.5740695469 -0.5265263372 -0.6133076827 -0.4772215617 -0.4537461464 -0.4025805401 -0.5967407784 -0.1293792587 -0.2086855657 0.1227229375 -0.7174481638 -0.6956468107 -0.7650168849 -0.6063475575 -0.6560723721 -0.1616754729 -0.3035073252 -0.5217364939 -0.59561642 -0.4408603135 -0.3719386236 -0.232760851 0.389559284 0.130804045 0.03197088044 0.4164276488 0.0427713098 0.0567517962 -0.273251967 -0.5496546921 0.5935412205 0.7233482779 0.7682430011 0.5450837865 0.2459941707 0.8409394663 0.7601575114 0.03967675277 -0.3829378221 -0.4610629932 -0.4876920674 -0.4178589837 -0.5881984043 -0.6818480808 -0.4575586362 -0.2019420134 -0.3396019214 -0.03066789223 -0.09054445196 0.13461748 0.8337647849 0.7067817307 -0.392170819 -0.4065150731 -0.3380354811 -0.4007095684 -0.3119432484 0.261790509 0.349151399 0.5160590534 0.7487511702 0.6028769034 0.7527231421 0.5236322285 0.2864122868 0.3967003744 -0.4527738346 -0.4052964013 -0.4735005248 -0.3822419345 -0.3224015382 -0.4175577514 -0.186174507 -0.1368525133 -0.1388483484 -0.01193034319 0.03344803746 0.8530652405 0.9670199004 1.125857858 1.21077465 0.8209713473 0.6349275402 0.964151055 0.9751302853 1.123715835 1.259725634 0.9093168648 0.7375152132 1.200986418 0.4019282942 0.47493289 0.318544592 0.1249435863 -0.2380575904 -0.03041417402 -0.1165013556 -0.435125596 -0.1199144477 -0.3887033381 -0.3854960766 -0.1946846678 0.1252498715 -0.3473887436 -0.4925038248 -0.1556433258 -0.2808622659 0.1772158869 -0.6440444488 -0.6537876593 -0.7141225261 -0.71907922 1.287133057 0.08834205991 -0.2585358791 -0.1820487075 0.01111886912 -0.1476695044 -0.3706803139 -0.8158857292 -0.7829037194 -0.6493528601 -0.53633036 -0.4322435413 -0.7695958774 -0.6320552674 -0.1886756086 -0.5014803792 -0.720509674 -0.6564638569 -0.5400950391 0.5457034507 0.5559738777 0.8720767004 -0.2509790298 0.4648545264 0.673864817 0.1409745995 0.6782601057 0.439201343 0.9221631096 0.7846008583 1.005824973 1.105501408 1.142040633 0.2386183935 0.7397514898 0.5236854149 0.2589239266 0.2542057562 0.2731931326 -0.02569135932 -0.2176487118 -0.3965070744 -0.3716537761 -0.3377797734 -0.02282623539 0.1425224686 -0.01816382868 -0.2998642751 -0.4537075275 0.3757065012 0.3240373574 0.4352283333 0.6702373021 0.4345031863 -0.01233107302 0.2069747493 -0.4389997666 -0.5646791147 -0.2806111448 -0.1057528657 0.4432871922 0.2938321567 0.568963956 0.8373967382 0.9028286922 0.9739058011 1.115313964 0.6026735425 0.8688347555 1.096228671 1.300813604 0.7556255236 0.4769424935 0.2328412365 0.3034740092 0.6423915352 0.3657617464 1.235199814 1.305471237 1.208414036 0.147551285 -0.12961855 0.6315086061 0.7913170419 -0.4286969412 0.4298967118 -0.3889784794 -0.2546993989 0.5112232775 -0.3100781691 -0.2374006354 -0.3072931833 0.3957502016 -0.2865607279 0.09337240195 0.1881009379 -0.6192919231 -0.2830150167 0.352018751 0.231646168 -0.07216679424 -0.07582351114 -0.1088196844 -0.3549321749 0.4149538913 -0.5645599803 -0.2688223648 0.9035524696 0.5574212125 -0.01391913081 0.1069464745 -0.004357962991 -0.4011704519 0.1849871438 0.113852594 -0.298136457 -0.3252664067 -0.3430305645 -0.7155680168 -0.6495265247 -0.3060542278 -0.7357110678 -0.339579936 -0.7977134401 -0.334506233 -0.4839680895 -0.5295163507 -0.2612305371 0.1799321076 -0.02790124154 -0.1639125358 -0.5819300891 -0.6556487488 -0.7929845254 -0.4946138975 -0.5130298075 -0.4463026801 0.0468870954 -0.2500315304 -0.3815047782 -0.169070237 0.009824118074 -0.005298792914 -0.2877310093 -0.4346355289 -0.1567238133 -0.03712976976 0.3496978637 -0.1910518156 -0.2152607849 -0.05238152774 0.2683822345 -0.157459375 -0.3462222985 -0.3839359464 -0.4641539432 -0.6604895092 -0.4519838107 -0.8338404919 -0.7279640054 -0.6918265472 -0.3909101016 -0.4376154219 -0.6374312272 -0.790172188 0.3729582908 0.1170479216 0.2962768609 0.7377621446 0.5421365527 0.2142599218 -0.2779954983 -0.4036949929 -0.2633874747 0.09118371933 0.07518519848 -0.07900593313 0.03504535325 0.02243563801 -0.2041360077 0.1094576396 0.01661079224 0.3829354867 -0.5393912634 -0.4602650145 -0.09690577766 -0.2157924377 -0.3228331581 0.1451074051 0.1409128472 -0.6762490582 -0.4192420917 -0.4205250805 -0.6616565049 -0.6774394476 -0.3720895769 -0.4979398961 -0.2975333173 -0.1539137763 -0.5438780227 -0.7827048056 -0.2431384849 0.0415049452 -0.2928436224 -0.1234942151 -0.226511797 -0.3233661419 0.06328684286 0.1520220813 0.7968355711 -0.3530956983 -0.2593984235 0.5940213742 0.8909700745 0.9464646067 0.7815704416 1.103687916 0.6931385764 -0.5755449399 -0.6418073637 0.7955678755 0.4902062276 0.4702793392 -0.6748323708 -0.7144184298 -0.6808778747 0.05119781218 -0.09354113171 0.1535281162 0.3906013848 -0.03719385691 0.2694631388 0.414004937 0.2381367633 0.6971978789 0.1501601679 -0.4010693177 0.1529749746 0.4228163722 -0.07834434177 -0.28011526 -0.1263698386 -0.5726912065 -0.43582505 0.440499386 0.02558467253 0.3347765775 0.5970693784 0.08091339582 -0.2270750453 -0.3738561062 -0.3247273653 -0.3934167921 -0.2165545239 0.9832096889 1.189954245 0.06947535873 0.135090082 0.5644827176 0.3546659856 0.591823037 0.5509949393 0.3478954727 0.566506846 0.3101901434 0.4922900833 0.005540145913 0.04151549521 0.1211697701 0.1844272662 -0.04540732692 0.3657728942 0.3929131428 1.059697252 -0.5236195504 -0.5596155075 -0.3970595749 -0.6633807013 0.3894228371 0.1926254641 0.02124767492 0.407362802 0.003203845455 0.6663159962 -0.0977356395 -0.01526369013 0.08100387683 -0.1867761241 -0.6505305035 -0.03621185652 0.3727028779 0.1822437851 0.6368735512 0.1144309723 -0.3047529162 -0.3639975552 0.02670462832 0.03026991434 0.1606661879 -0.03154822968 -0.1424753626 -0.3895553601 -0.1852680721 -0.3411522574 0.7184141676 0.6380232568 0.4781727132 -0.376473752 -0.1599700649 -0.1030341592 -0.2004956047 0.02908848387 0.02980628952 -0.3459191519 0.2774298693 0.44674037 0.7685927872 0.4571867542 0.674443586 1.044082213 0.945622043 -0.1183561477 -0.1010723341 0.09845669154 -0.1269907953 -0.3376189329 -0.04456157312 0.01315287459 0.1949742839 0.09447172234 0.8376954637 -0.2189620338 -0.3913688094 -0.1692553587 -0.2473983644 -0.09170733075 -0.3115236531 -0.08155113241 -0.1043063932 -0.3400386342 0.3378651302 0.6439859186 0.2927628635 0.4680547938 -0.3276900359 -0.3842020924 -0.349878661 -0.3605375512 -0.2502864825 -0.009201554629 -0.2778496239 0.8868226762 0.6413196046 -0.1466447555 0.2831194456 0.08849595027 0.681200564 0.5963570099 -0.1360130165 0.1201363398 0.6232398299 0.6133160137 1.018702944 0.5706951307 0.04048157873 -0.1589869762 -0.1375429715 -0.06697147186 -0.7311881338 -0.5582443038 -0.2967941642 -0.523156876 -0.4762892023 0.4044136726 0.3709492034 -0.4774081169 -0.7076384511 -0.2627948314 -0.4201560329 -0.374480016 0.08858071104 -0.1978166706 -0.1567854886 -0.5018613691 -0.4725605076 -0.2881702351 -0.1124429029 -0.3226312359 0.1351692046 -0.1522351354 0.4549826858 0.7214346567 0.9305407546 -0.6586663534 -0.5467359148 0.8167777974 0.3447557848 0.5475571776 0.02915514471 -0.2289259306 0.01437082167 -0.5103388871 -0.1271584449 0.03894708815 1.055679635 -0.06977093744 0.3446654623 -0.2665084489 0.09413570875 -0.3404084575 0.1622782056 -0.5300847736 0.3782746928 -0.1161002221 0.2596089416 -0.3004070487 1.104080055 0.973142748 0.5923156532 0.3478357643 0.5282998563 0.5770861168 0.4836336383 0.692759333 -0.5309925573 0.2972217026 0.7365111022 0.3281346273 0.5070032383 -0.2731253362 -0.05855859375 -0.6446969398 0.2095667111 -0.5490171022 -0.7299482174 -0.2112591687 0.7420215345 0.3509111894 0.7248818517 0.4008745304 -0.7931869832 0.8286440416 0.9886602242 0.8283411473 -0.4104282846 -0.4849615917 -0.1019041876 -0.6464138759 0.6686934539 0.6010722546 -0.4565175404 -0.4796317297 -0.5190446689 -0.4412152709 -0.5905145601 0.7457361775 -0.03798785849 -0.2612557876 -0.4243270603 1.112276411 0.9148716327 1.027512106 0.8661144246 0.9751033777 0.8435822811 -0.3522073885 -0.1909954621 -0.4078687011 -0.3379005225 -0.5303012499 0.7609604825 -0.6344144689 -0.5941618044 -0.5296022371 1.175566275 0.1754027776 -0.4476737678 -0.5322523459 -0.3347894477 0.5811832678 0.108421054 0.2810348727 -0.02270804896 -0.6773127746 0.6726098489 1.168192758 1.086593622 -0.2550116577 0.1191182069 -0.3109957588 -0.478217727 0.5030982242 0.6376000075 -0.618066419 0.03044027153 -0.4409930957 0.3645378173 0.3132398465 -0.08657425707 0.2311217951 0.3729314344 -0.3458161775 -0.3908186782 1.094198893 -0.4330096147 -0.4647795273 0.9097644616 0.7916586835 1.008187673 0.9979005327 -0.1593356689 -0.2091827983 -0.2772942922 -0.7443523493 -0.6104783146 -0.5388711591 1.153788974 -0.1239722241 0.2157200118 0.03839484293 -0.2459877841 -0.7323631343 -0.3758814497 -0.484897726 -0.3431217878 -0.3288249101 -0.02041348841 0.1431815858 0.1624627931 0.7871565681 -0.481691716 0.8794462993 -0.7428686151 0.5590675497 0.5303566297 1.063352626 1.146414152 0.5902294581 -0.2913975692
</DataArray>
<DataArray type="Float64" Name="PC2" NumberOfComponents="1" format="ascii">